    5
 B3LYP/cc-pVTZ//B3LYP/cc-pVTZ Energy:    -40.502272282402
 C         -0.0000000000        0.0000000000       -0.0000058295
 H         -0.0000000000        0.0000000000        1.0886386958
 H          0.5131974179       -0.8888840021       -0.3628564097
 H         -1.0263948358        0.0000000000       -0.3628564097
 H          0.5131974179        0.8888840021       -0.3628564097
