    3
 B3LYP/cc-pVTZ//B3LYP/cc-pVTZ Energy:    -76.422738046534
 H          0.7604168881        0.0000000000        0.4360334734
 O          0.0000000000        0.0000000000       -0.1525518467
 H         -0.7604168881        0.0000000000        0.4360334734
