    2
 B3LYP/cc-pVTZ//B3LYP/cc-pVTZ Energy:   -150.258975213571
 O          0.0000000000        0.0000000000       -0.6032761997
 O          0.0000000000        0.0000000000        0.6032761997
